# vtk DataFile Version 3.0
Vector Field
ASCII
DATASET RECTILINEAR_GRID 
DIMENSIONS 60 60 1 
X_COORDINATES 60 double
0.000000 0.100000 0.200000 0.300000 0.400000 0.500000 0.600000 0.700000 0.800000 0.900000 1.000000 1.100000 1.200000 1.300000 1.400000 1.500000 1.600000 1.700000 1.800000 1.900000 2.000000 2.100000 2.200000 2.300000 2.400000 2.500000 2.600000 2.700000 2.800000 2.900000 3.000000 3.100000 3.200000 3.300000 3.400000 3.500000 3.600000 3.700000 3.800000 3.900000 4.000000 4.100000 4.200000 4.300000 4.400000 4.500000 4.600000 4.700000 4.800000 4.900000 5.000000 5.100000 5.200000 5.300000 5.400000 5.500000 5.600000 5.700000 5.800000 5.900000 
Y_COORDINATES 60 double
0.000000 0.100000 0.200000 0.300000 0.400000 0.500000 0.600000 0.700000 0.800000 0.900000 1.000000 1.100000 1.200000 1.300000 1.400000 1.500000 1.600000 1.700000 1.800000 1.900000 2.000000 2.100000 2.200000 2.300000 2.400000 2.500000 2.600000 2.700000 2.800000 2.900000 3.000000 3.100000 3.200000 3.300000 3.400000 3.500000 3.600000 3.700000 3.800000 3.900000 4.000000 4.100000 4.200000 4.300000 4.400000 4.500000 4.600000 4.700000 4.800000 4.900000 5.000000 5.100000 5.200000 5.300000 5.400000 5.500000 5.600000 5.700000 5.800000 5.900000 
Z_COORDINATES 1 double
0.0
POINT_DATA 3600
VECTORS vectorfield double 
0.000000e+00 0.000000e+00 0.0
0.000000e+00 0.000000e+00 0.0
0.000000e+00 0.000000e+00 0.0
0.000000e+00 0.000000e+00 0.0
0.000000e+00 0.000000e+00 0.0
0.000000e+00 0.000000e+00 0.0
0.000000e+00 0.000000e+00 0.0
0.000000e+00 0.000000e+00 0.0
0.000000e+00 0.000000e+00 0.0
0.000000e+00 0.000000e+00 0.0
0.000000e+00 0.000000e+00 0.0
0.000000e+00 0.000000e+00 0.0
0.000000e+00 0.000000e+00 0.0
0.000000e+00 0.000000e+00 0.0
0.000000e+00 0.000000e+00 0.0
0.000000e+00 0.000000e+00 0.0
0.000000e+00 0.000000e+00 0.0
0.000000e+00 0.000000e+00 0.0
0.000000e+00 0.000000e+00 0.0
0.000000e+00 0.000000e+00 0.0
0.000000e+00 0.000000e+00 0.0
0.000000e+00 0.000000e+00 0.0
0.000000e+00 0.000000e+00 0.0
0.000000e+00 0.000000e+00 0.0
0.000000e+00 0.000000e+00 0.0
0.000000e+00 0.000000e+00 0.0
0.000000e+00 0.000000e+00 0.0
0.000000e+00 0.000000e+00 0.0
0.000000e+00 0.000000e+00 0.0
0.000000e+00 0.000000e+00 0.0
0.000000e+00 0.000000e+00 0.0
0.000000e+00 0.000000e+00 0.0
0.000000e+00 0.000000e+00 0.0
0.000000e+00 0.000000e+00 0.0
0.000000e+00 0.000000e+00 0.0
0.000000e+00 0.000000e+00 0.0
0.000000e+00 0.000000e+00 0.0
0.000000e+00 0.000000e+00 0.0
0.000000e+00 0.000000e+00 0.0
0.000000e+00 0.000000e+00 0.0
0.000000e+00 0.000000e+00 0.0
0.000000e+00 0.000000e+00 0.0
0.000000e+00 0.000000e+00 0.0
0.000000e+00 0.000000e+00 0.0
0.000000e+00 0.000000e+00 0.0
0.000000e+00 0.000000e+00 0.0
0.000000e+00 0.000000e+00 0.0
0.000000e+00 0.000000e+00 0.0
0.000000e+00 0.000000e+00 0.0
0.000000e+00 0.000000e+00 0.0
0.000000e+00 0.000000e+00 0.0
0.000000e+00 0.000000e+00 0.0
0.000000e+00 0.000000e+00 0.0
0.000000e+00 0.000000e+00 0.0
0.000000e+00 0.000000e+00 0.0
0.000000e+00 0.000000e+00 0.0
0.000000e+00 0.000000e+00 0.0
0.000000e+00 0.000000e+00 0.0
0.000000e+00 0.000000e+00 0.0
0.000000e+00 0.000000e+00 0.0
0.000000e+00 0.000000e+00 0.0
0.000000e+00 0.000000e+00 0.0
0.000000e+00 0.000000e+00 0.0
0.000000e+00 0.000000e+00 0.0
0.000000e+00 0.000000e+00 0.0
0.000000e+00 0.000000e+00 0.0
0.000000e+00 0.000000e+00 0.0
0.000000e+00 0.000000e+00 0.0
0.000000e+00 0.000000e+00 0.0
0.000000e+00 0.000000e+00 0.0
0.000000e+00 0.000000e+00 0.0
0.000000e+00 0.000000e+00 0.0
0.000000e+00 0.000000e+00 0.0
0.000000e+00 0.000000e+00 0.0
0.000000e+00 0.000000e+00 0.0
0.000000e+00 0.000000e+00 0.0
0.000000e+00 0.000000e+00 0.0
0.000000e+00 0.000000e+00 0.0
0.000000e+00 0.000000e+00 0.0
0.000000e+00 0.000000e+00 0.0
0.000000e+00 0.000000e+00 0.0
0.000000e+00 0.000000e+00 0.0
0.000000e+00 0.000000e+00 0.0
-2.346405e-02 -9.720822e-02 0.0
-2.026056e-02 -9.792604e-02 0.0
-1.699069e-02 -9.854601e-02 0.0
-1.366374e-02 -9.906211e-02 0.0
-1.028992e-02 -9.946918e-02 0.0
-6.880209e-03 -9.976303e-02 0.0
-3.446228e-03 -9.994060e-02 0.0
0.000000e+00 -1.000000e-01 0.0
3.446228e-03 -9.994060e-02 0.0
6.880209e-03 -9.976303e-02 0.0
1.028992e-02 -9.946918e-02 0.0
1.366374e-02 -9.906211e-02 0.0
1.699069e-02 -9.854601e-02 0.0
2.026056e-02 -9.792604e-02 0.0
2.346405e-02 -9.720822e-02 0.0
0.000000e+00 0.000000e+00 0.0
0.000000e+00 0.000000e+00 0.0
0.000000e+00 0.000000e+00 0.0
0.000000e+00 0.000000e+00 0.0
0.000000e+00 0.000000e+00 0.0
0.000000e+00 0.000000e+00 0.0
0.000000e+00 0.000000e+00 0.0
0.000000e+00 0.000000e+00 0.0
0.000000e+00 0.000000e+00 0.0
0.000000e+00 0.000000e+00 0.0
0.000000e+00 0.000000e+00 0.0
0.000000e+00 0.000000e+00 0.0
0.000000e+00 0.000000e+00 0.0
0.000000e+00 0.000000e+00 0.0
0.000000e+00 0.000000e+00 0.0
0.000000e+00 0.000000e+00 0.0
0.000000e+00 0.000000e+00 0.0
0.000000e+00 0.000000e+00 0.0
0.000000e+00 0.000000e+00 0.0
0.000000e+00 0.000000e+00 0.0
0.000000e+00 0.000000e+00 0.0
0.000000e+00 0.000000e+00 0.0
0.000000e+00 0.000000e+00 0.0
0.000000e+00 0.000000e+00 0.0
0.000000e+00 0.000000e+00 0.0
0.000000e+00 0.000000e+00 0.0
0.000000e+00 0.000000e+00 0.0
0.000000e+00 0.000000e+00 0.0
0.000000e+00 0.000000e+00 0.0
0.000000e+00 0.000000e+00 0.0
0.000000e+00 0.000000e+00 0.0
0.000000e+00 0.000000e+00 0.0
0.000000e+00 0.000000e+00 0.0
0.000000e+00 0.000000e+00 0.0
0.000000e+00 0.000000e+00 0.0
0.000000e+00 0.000000e+00 0.0
0.000000e+00 0.000000e+00 0.0
0.000000e+00 0.000000e+00 0.0
0.000000e+00 0.000000e+00 0.0
0.000000e+00 0.000000e+00 0.0
0.000000e+00 0.000000e+00 0.0
0.000000e+00 0.000000e+00 0.0
-3.363364e-02 -9.417419e-02 0.0
-3.060092e-02 -9.520286e-02 0.0
-2.747211e-02 -9.615239e-02 0.0
-2.425356e-02 -9.701425e-02 0.0
-2.095291e-02 -9.778024e-02 0.0
-1.757906e-02 -9.844276e-02 0.0
-1.414214e-02 -9.899495e-02 0.0
-1.065331e-02 -9.943092e-02 0.0
-7.124705e-03 -9.974587e-02 0.0
-3.569153e-03 -9.993629e-02 0.0
0.000000e+00 -1.000000e-01 0.0
3.569153e-03 -9.993629e-02 0.0
7.124705e-03 -9.974587e-02 0.0
1.065331e-02 -9.943092e-02 0.0
1.414214e-02 -9.899495e-02 0.0
1.757906e-02 -9.844276e-02 0.0
2.095291e-02 -9.778024e-02 0.0
2.425356e-02 -9.701425e-02 0.0
2.747211e-02 -9.615239e-02 0.0
3.060092e-02 -9.520286e-02 0.0
3.363364e-02 -9.417419e-02 0.0
0.000000e+00 0.000000e+00 0.0
0.000000e+00 0.000000e+00 0.0
0.000000e+00 0.000000e+00 0.0
0.000000e+00 0.000000e+00 0.0
0.000000e+00 0.000000e+00 0.0
0.000000e+00 0.000000e+00 0.0
0.000000e+00 0.000000e+00 0.0
0.000000e+00 0.000000e+00 0.0
0.000000e+00 0.000000e+00 0.0
0.000000e+00 0.000000e+00 0.0
0.000000e+00 0.000000e+00 0.0
0.000000e+00 0.000000e+00 0.0
0.000000e+00 0.000000e+00 0.0
0.000000e+00 0.000000e+00 0.0
0.000000e+00 0.000000e+00 0.0
0.000000e+00 0.000000e+00 0.0
0.000000e+00 0.000000e+00 0.0
0.000000e+00 0.000000e+00 0.0
0.000000e+00 0.000000e+00 0.0
0.000000e+00 0.000000e+00 0.0
0.000000e+00 0.000000e+00 0.0
0.000000e+00 0.000000e+00 0.0
0.000000e+00 0.000000e+00 0.0
0.000000e+00 0.000000e+00 0.0
0.000000e+00 0.000000e+00 0.0
0.000000e+00 0.000000e+00 0.0
0.000000e+00 0.000000e+00 0.0
0.000000e+00 0.000000e+00 0.0
0.000000e+00 0.000000e+00 0.0
0.000000e+00 0.000000e+00 0.0
0.000000e+00 0.000000e+00 0.0
0.000000e+00 0.000000e+00 0.0
0.000000e+00 0.000000e+00 0.0
0.000000e+00 0.000000e+00 0.0
0.000000e+00 0.000000e+00 0.0
0.000000e+00 0.000000e+00 0.0
-4.338156e-02 -9.010017e-02 0.0
-4.061385e-02 -9.138115e-02 0.0
-3.772969e-02 -9.260924e-02 0.0
-3.473144e-02 -9.377488e-02 0.0
-3.162278e-02 -9.486833e-02 0.0
-2.840883e-02 -9.587981e-02 0.0
-2.509622e-02 -9.679969e-02 0.0
-2.169305e-02 -9.761871e-02 0.0
-1.820893e-02 -9.832820e-02 0.0
-1.465487e-02 -9.892035e-02 0.0
-1.104315e-02 -9.938837e-02 0.0
-7.387169e-03 -9.972678e-02 0.0
-3.701166e-03 -9.993148e-02 0.0
0.000000e+00 -1.000000e-01 0.0
3.701166e-03 -9.993148e-02 0.0
7.387169e-03 -9.972678e-02 0.0
1.104315e-02 -9.938837e-02 0.0
1.465487e-02 -9.892035e-02 0.0
1.820893e-02 -9.832820e-02 0.0
2.169305e-02 -9.761871e-02 0.0
2.509622e-02 -9.679969e-02 0.0
2.840883e-02 -9.587981e-02 0.0
3.162278e-02 -9.486833e-02 0.0
3.473144e-02 -9.377488e-02 0.0
3.772969e-02 -9.260924e-02 0.0
4.061385e-02 -9.138115e-02 0.0
4.338156e-02 -9.010017e-02 0.0
0.000000e+00 0.000000e+00 0.0
0.000000e+00 0.000000e+00 0.0
0.000000e+00 0.000000e+00 0.0
0.000000e+00 0.000000e+00 0.0
0.000000e+00 0.000000e+00 0.0
0.000000e+00 0.000000e+00 0.0
0.000000e+00 0.000000e+00 0.0
0.000000e+00 0.000000e+00 0.0
0.000000e+00 0.000000e+00 0.0
0.000000e+00 0.000000e+00 0.0
0.000000e+00 0.000000e+00 0.0
0.000000e+00 0.000000e+00 0.0
0.000000e+00 0.000000e+00 0.0
0.000000e+00 0.000000e+00 0.0
0.000000e+00 0.000000e+00 0.0
0.000000e+00 0.000000e+00 0.0
0.000000e+00 0.000000e+00 0.0
0.000000e+00 0.000000e+00 0.0
0.000000e+00 0.000000e+00 0.0
0.000000e+00 0.000000e+00 0.0
0.000000e+00 0.000000e+00 0.0
0.000000e+00 0.000000e+00 0.0
0.000000e+00 0.000000e+00 0.0
0.000000e+00 0.000000e+00 0.0
0.000000e+00 0.000000e+00 0.0
0.000000e+00 0.000000e+00 0.0
0.000000e+00 0.000000e+00 0.0
0.000000e+00 0.000000e+00 0.0
0.000000e+00 0.000000e+00 0.0
0.000000e+00 0.000000e+00 0.0
0.000000e+00 0.000000e+00 0.0
0.000000e+00 0.000000e+00 0.0
-4.740998e-02 -8.804711e-02 0.0
-4.472136e-02 -8.944272e-02 0.0
-4.190582e-02 -9.079594e-02 0.0
-3.896400e-02 -9.209673e-02 0.0
-3.589791e-02 -9.333456e-02 0.0
-3.271106e-02 -9.449861e-02 0.0
-2.940858e-02 -9.557790e-02 0.0
-2.599735e-02 -9.656158e-02 0.0
-2.248595e-02 -9.743912e-02 0.0
-1.888474e-02 -9.820064e-02 0.0
-1.520572e-02 -9.883717e-02 0.0
-1.146241e-02 -9.934089e-02 0.0
-7.669650e-03 -9.970545e-02 0.0
-3.843312e-03 -9.992612e-02 0.0
0.000000e+00 -1.000000e-01 0.0
3.843312e-03 -9.992612e-02 0.0
7.669650e-03 -9.970545e-02 0.0
1.146241e-02 -9.934089e-02 0.0
1.520572e-02 -9.883717e-02 0.0
1.888474e-02 -9.820064e-02 0.0
2.248595e-02 -9.743912e-02 0.0
2.599735e-02 -9.656158e-02 0.0
2.940858e-02 -9.557790e-02 0.0
3.271106e-02 -9.449861e-02 0.0
3.589791e-02 -9.333456e-02 0.0
3.896400e-02 -9.209673e-02 0.0
4.190582e-02 -9.079594e-02 0.0
4.472136e-02 -8.944272e-02 0.0
4.740998e-02 -8.804711e-02 0.0
0.000000e+00 0.000000e+00 0.0
0.000000e+00 0.000000e+00 0.0
0.000000e+00 0.000000e+00 0.0
0.000000e+00 0.000000e+00 0.0
0.000000e+00 0.000000e+00 0.0
0.000000e+00 0.000000e+00 0.0
0.000000e+00 0.000000e+00 0.0
0.000000e+00 0.000000e+00 0.0
0.000000e+00 0.000000e+00 0.0
0.000000e+00 0.000000e+00 0.0
0.000000e+00 0.000000e+00 0.0
0.000000e+00 0.000000e+00 0.0
0.000000e+00 0.000000e+00 0.0
0.000000e+00 0.000000e+00 0.0
0.000000e+00 0.000000e+00 0.0
0.000000e+00 0.000000e+00 0.0
0.000000e+00 0.000000e+00 0.0
0.000000e+00 0.000000e+00 0.0
0.000000e+00 0.000000e+00 0.0
0.000000e+00 0.000000e+00 0.0
0.000000e+00 0.000000e+00 0.0
0.000000e+00 0.000000e+00 0.0
0.000000e+00 0.000000e+00 0.0
0.000000e+00 0.000000e+00 0.0
0.000000e+00 0.000000e+00 0.0
0.000000e+00 0.000000e+00 0.0
0.000000e+00 0.000000e+00 0.0
0.000000e+00 0.000000e+00 0.0
0.000000e+00 0.000000e+00 0.0
-5.390537e-02 -8.422714e-02 0.0
-5.144958e-02 -8.574929e-02 0.0
-4.886034e-02 -8.725060e-02 0.0
-4.613527e-02 -8.872168e-02 0.0
-4.327311e-02 -9.015231e-02 0.0
-4.027386e-02 -9.153150e-02 0.0
-3.713907e-02 -9.284767e-02 0.0
-3.387195e-02 -9.408874e-02 0.0
-3.047757e-02 -9.524241e-02 0.0
-2.696299e-02 -9.629640e-02 0.0
-2.333730e-02 -9.723873e-02 0.0
-1.961161e-02 -9.805807e-02 0.0
-1.579905e-02 -9.874406e-02 0.0
-1.191452e-02 -9.928768e-02 0.0
-7.974522e-03 -9.968153e-02 0.0
-3.996804e-03 -9.992010e-02 0.0
0.000000e+00 -1.000000e-01 0.0
3.996804e-03 -9.992010e-02 0.0
7.974522e-03 -9.968153e-02 0.0
1.191452e-02 -9.928768e-02 0.0
1.579905e-02 -9.874406e-02 0.0
1.961161e-02 -9.805807e-02 0.0
2.333730e-02 -9.723873e-02 0.0
2.696299e-02 -9.629640e-02 0.0
3.047757e-02 -9.524241e-02 0.0
3.387195e-02 -9.408874e-02 0.0
3.713907e-02 -9.284767e-02 0.0
4.027386e-02 -9.153150e-02 0.0
4.327311e-02 -9.015231e-02 0.0
4.613527e-02 -8.872168e-02 0.0
4.886034e-02 -8.725060e-02 0.0
5.144958e-02 -8.574929e-02 0.0
5.390537e-02 -8.422714e-02 0.0
0.000000e+00 0.000000e+00 0.0
0.000000e+00 0.000000e+00 0.0
0.000000e+00 0.000000e+00 0.0
0.000000e+00 0.000000e+00 0.0
0.000000e+00 0.000000e+00 0.0
0.000000e+00 0.000000e+00 0.0
0.000000e+00 0.000000e+00 0.0
0.000000e+00 0.000000e+00 0.0
0.000000e+00 0.000000e+00 0.0
0.000000e+00 0.000000e+00 0.0
0.000000e+00 0.000000e+00 0.0
0.000000e+00 0.000000e+00 0.0
0.000000e+00 0.000000e+00 0.0
0.000000e+00 0.000000e+00 0.0
0.000000e+00 0.000000e+00 0.0
0.000000e+00 0.000000e+00 0.0
0.000000e+00 0.000000e+00 0.0
0.000000e+00 0.000000e+00 0.0
0.000000e+00 0.000000e+00 0.0
0.000000e+00 0.000000e+00 0.0
0.000000e+00 0.000000e+00 0.0
0.000000e+00 0.000000e+00 0.0
0.000000e+00 0.000000e+00 0.0
0.000000e+00 0.000000e+00 0.0
0.000000e+00 0.000000e+00 0.0
0.000000e+00 0.000000e+00 0.0
-5.780173e-02 -8.160245e-02 0.0
-5.547002e-02 -8.320503e-02 0.0
-5.299989e-02 -8.479983e-02 0.0
-5.038710e-02 -8.637789e-02 0.0
-4.762831e-02 -8.792920e-02 0.0
-4.472136e-02 -8.944272e-02 0.0
-4.166547e-02 -9.090648e-02 0.0
-3.846154e-02 -9.230769e-02 0.0
-3.511234e-02 -9.363292e-02 0.0
-3.162278e-02 -9.486833e-02 0.0
-2.800000e-02 -9.600000e-02 0.0
-2.425356e-02 -9.701425e-02 0.0
-2.039543e-02 -9.789804e-02 0.0
-1.643990e-02 -9.863939e-02 0.0
-1.240347e-02 -9.922779e-02 0.0
-8.304548e-03 -9.965458e-02 0.0
-4.163054e-03 -9.991331e-02 0.0
0.000000e+00 -1.000000e-01 0.0
4.163054e-03 -9.991331e-02 0.0
8.304548e-03 -9.965458e-02 0.0
1.240347e-02 -9.922779e-02 0.0
1.643990e-02 -9.863939e-02 0.0
2.039543e-02 -9.789804e-02 0.0
2.425356e-02 -9.701425e-02 0.0
2.800000e-02 -9.600000e-02 0.0
3.162278e-02 -9.486833e-02 0.0
3.511234e-02 -9.363292e-02 0.0
3.846154e-02 -9.230769e-02 0.0
4.166547e-02 -9.090648e-02 0.0
4.472136e-02 -8.944272e-02 0.0
4.762831e-02 -8.792920e-02 0.0
5.038710e-02 -8.637789e-02 0.0
5.299989e-02 -8.479983e-02 0.0
5.547002e-02 -8.320503e-02 0.0
5.780173e-02 -8.160245e-02 0.0
0.000000e+00 0.000000e+00 0.0
0.000000e+00 0.000000e+00 0.0
0.000000e+00 0.000000e+00 0.0
0.000000e+00 0.000000e+00 0.0
0.000000e+00 0.000000e+00 0.0
0.000000e+00 0.000000e+00 0.0
0.000000e+00 0.000000e+00 0.0
0.000000e+00 0.000000e+00 0.0
0.000000e+00 0.000000e+00 0.0
0.000000e+00 0.000000e+00 0.0
0.000000e+00 0.000000e+00 0.0
0.000000e+00 0.000000e+00 0.0
0.000000e+00 0.000000e+00 0.0
0.000000e+00 0.000000e+00 0.0
0.000000e+00 0.000000e+00 0.0
0.000000e+00 0.000000e+00 0.0
0.000000e+00 0.000000e+00 0.0
0.000000e+00 0.000000e+00 0.0
0.000000e+00 0.000000e+00 0.0
0.000000e+00 0.000000e+00 0.0
0.000000e+00 0.000000e+00 0.0
0.000000e+00 0.000000e+00 0.0
0.000000e+00 0.000000e+00 0.0
-6.368814e-02 -7.709618e-02 0.0
-6.163083e-02 -7.875050e-02 0.0
-5.943911e-02 -8.041761e-02 0.0
-5.710645e-02 -8.209052e-02 0.0
-5.462678e-02 -8.376106e-02 0.0
-5.199469e-02 -8.541986e-02 0.0
-4.920573e-02 -8.705628e-02 0.0
-4.625660e-02 -8.865848e-02 0.0
-4.314555e-02 -9.021342e-02 0.0
-3.987261e-02 -9.170701e-02 0.0
-3.643993e-02 -9.312428e-02 0.0
-3.285206e-02 -9.444968e-02 0.0
-2.911616e-02 -9.566739e-02 0.0
-2.524219e-02 -9.676173e-02 0.0
-2.124296e-02 -9.771764e-02 0.0
-1.713412e-02 -9.852118e-02 0.0
-1.293392e-02 -9.916004e-02 0.0
-8.662962e-03 -9.962406e-02 0.0
-4.343722e-03 -9.990562e-02 0.0
0.000000e+00 -1.000000e-01 0.0
4.343722e-03 -9.990562e-02 0.0
8.662962e-03 -9.962406e-02 0.0
1.293392e-02 -9.916004e-02 0.0
1.713412e-02 -9.852118e-02 0.0
2.124296e-02 -9.771764e-02 0.0
2.524219e-02 -9.676173e-02 0.0
2.911616e-02 -9.566739e-02 0.0
3.285206e-02 -9.444968e-02 0.0
3.643993e-02 -9.312428e-02 0.0
3.987261e-02 -9.170701e-02 0.0
4.314555e-02 -9.021342e-02 0.0
4.625660e-02 -8.865848e-02 0.0
4.920573e-02 -8.705628e-02 0.0
5.199469e-02 -8.541986e-02 0.0
5.462678e-02 -8.376106e-02 0.0
5.710645e-02 -8.209052e-02 0.0
5.943911e-02 -8.041761e-02 0.0
6.163083e-02 -7.875050e-02 0.0
6.368814e-02 -7.709618e-02 0.0
0.000000e+00 0.000000e+00 0.0
0.000000e+00 0.000000e+00 0.0
0.000000e+00 0.000000e+00 0.0
0.000000e+00 0.000000e+00 0.0
0.000000e+00 0.000000e+00 0.0
0.000000e+00 0.000000e+00 0.0
0.000000e+00 0.000000e+00 0.0
0.000000e+00 0.000000e+00 0.0
0.000000e+00 0.000000e+00 0.0
0.000000e+00 0.000000e+00 0.0
0.000000e+00 0.000000e+00 0.0
0.000000e+00 0.000000e+00 0.0
0.000000e+00 0.000000e+00 0.0
0.000000e+00 0.000000e+00 0.0
0.000000e+00 0.000000e+00 0.0
0.000000e+00 0.000000e+00 0.0
0.000000e+00 0.000000e+00 0.0
0.000000e+00 0.000000e+00 0.0
0.000000e+00 0.000000e+00 0.0
0.000000e+00 0.000000e+00 0.0
-6.726728e-02 -7.399401e-02 0.0
-6.536199e-02 -7.568230e-02 0.0
-6.332378e-02 -7.739573e-02 0.0
-6.114475e-02 -7.912850e-02 0.0
-5.881717e-02 -8.087361e-02 0.0
-5.633368e-02 -8.262273e-02 0.0
-5.368755e-02 -8.436615e-02 0.0
-5.087293e-02 -8.609265e-02 0.0
-4.788521e-02 -8.778956e-02 0.0
-4.472136e-02 -8.944272e-02 0.0
-4.138029e-02 -9.103665e-02 0.0
-3.786328e-02 -9.255470e-02 0.0
-3.417431e-02 -9.397934e-02 0.0
-3.032037e-02 -9.529258e-02 0.0
-2.631174e-02 -9.647638e-02 0.0
-2.216211e-02 -9.751329e-02 0.0
-1.788854e-02 -9.838699e-02 0.0
-1.351132e-02 -9.908302e-02 0.0
-9.053575e-03 -9.958932e-02 0.0
-4.540766e-03 -9.989685e-02 0.0
0.000000e+00 -1.000000e-01 0.0
4.540766e-03 -9.989685e-02 0.0
9.053575e-03 -9.958932e-02 0.0
1.351132e-02 -9.908302e-02 0.0
1.788854e-02 -9.838699e-02 0.0
2.216211e-02 -9.751329e-02 0.0
2.631174e-02 -9.647638e-02 0.0
3.032037e-02 -9.529258e-02 0.0
3.417431e-02 -9.397934e-02 0.0
3.786328e-02 -9.255470e-02 0.0
4.138029e-02 -9.103665e-02 0.0
4.472136e-02 -8.944272e-02 0.0
4.788521e-02 -8.778956e-02 0.0
5.087293e-02 -8.609265e-02 0.0
5.368755e-02 -8.436615e-02 0.0
5.633368e-02 -8.262273e-02 0.0
5.881717e-02 -8.087361e-02 0.0
6.114475e-02 -7.912850e-02 0.0
6.332378e-02 -7.739573e-02 0.0
6.536199e-02 -7.568230e-02 0.0
6.726728e-02 -7.399401e-02 0.0
0.000000e+00 0.000000e+00 0.0
0.000000e+00 0.000000e+00 0.0
0.000000e+00 0.000000e+00 0.0
0.000000e+00 0.000000e+00 0.0
0.000000e+00 0.000000e+00 0.0
0.000000e+00 0.000000e+00 0.0
0.000000e+00 0.000000e+00 0.0
0.000000e+00 0.000000e+00 0.0
0.000000e+00 0.000000e+00 0.0
0.000000e+00 0.000000e+00 0.0
0.000000e+00 0.000000e+00 0.0
0.000000e+00 0.000000e+00 0.0
0.000000e+00 0.000000e+00 0.0
0.000000e+00 0.000000e+00 0.0
0.000000e+00 0.000000e+00 0.0
0.000000e+00 0.000000e+00 0.0
0.000000e+00 0.000000e+00 0.0
0.000000e+00 0.000000e+00 0.0
-7.071068e-02 -7.071068e-02 0.0
-6.896552e-02 -7.241379e-02 0.0
-6.709133e-02 -7.415358e-02 0.0
-6.507914e-02 -7.592566e-02 0.0
-6.291982e-02 -7.772449e-02 0.0
-6.060432e-02 -7.954317e-02 0.0
-5.812382e-02 -8.137335e-02 0.0
-5.547002e-02 -8.320503e-02 0.0
-5.263546e-02 -8.502651e-02 0.0
-4.961389e-02 -8.682431e-02 0.0
-4.640070e-02 -8.858315e-02 0.0
-4.299336e-02 -9.028605e-02 0.0
-3.939193e-02 -9.191450e-02 0.0
-3.559953e-02 -9.344877e-02 0.0
-3.162278e-02 -9.486833e-02 0.0
-2.747211e-02 -9.615239e-02 0.0
-2.316205e-02 -9.728062e-02 0.0
-1.871121e-02 -9.823386e-02 0.0
-1.414214e-02 -9.899495e-02 0.0
-9.480909e-03 -9.954955e-02 0.0
-4.756515e-03 -9.988681e-02 0.0
0.000000e+00 -1.000000e-01 0.0
4.756515e-03 -9.988681e-02 0.0
9.480909e-03 -9.954955e-02 0.0
1.414214e-02 -9.899495e-02 0.0
1.871121e-02 -9.823386e-02 0.0
2.316205e-02 -9.728062e-02 0.0
2.747211e-02 -9.615239e-02 0.0
3.162278e-02 -9.486833e-02 0.0
3.559953e-02 -9.344877e-02 0.0
3.939193e-02 -9.191450e-02 0.0
4.299336e-02 -9.028605e-02 0.0
4.640070e-02 -8.858315e-02 0.0
4.961389e-02 -8.682431e-02 0.0
5.263546e-02 -8.502651e-02 0.0
5.547002e-02 -8.320503e-02 0.0
5.812382e-02 -8.137335e-02 0.0
6.060432e-02 -7.954317e-02 0.0
6.291982e-02 -7.772449e-02 0.0
6.507914e-02 -7.592566e-02 0.0
6.709133e-02 -7.415358e-02 0.0
6.896552e-02 -7.241379e-02 0.0
7.071068e-02 -7.071068e-02 0.0
0.000000e+00 0.000000e+00 0.0
0.000000e+00 0.000000e+00 0.0
0.000000e+00 0.000000e+00 0.0
0.000000e+00 0.000000e+00 0.0
0.000000e+00 0.000000e+00 0.0
0.000000e+00 0.000000e+00 0.0
0.000000e+00 0.000000e+00 0.0
0.000000e+00 0.000000e+00 0.0
0.000000e+00 0.000000e+00 0.0
0.000000e+00 0.000000e+00 0.0
0.000000e+00 0.000000e+00 0.0
0.000000e+00 0.000000e+00 0.0
0.000000e+00 0.000000e+00 0.0
0.000000e+00 0.000000e+00 0.0
0.000000e+00 0.000000e+00 0.0
0.000000e+00 0.000000e+00 0.0
-7.399401e-02 -6.726728e-02 0.0
-7.241379e-02 -6.896552e-02 0.0
-7.071068e-02 -7.071068e-02 0.0
-6.887495e-02 -7.249994e-02 0.0
-6.689647e-02 -7.432941e-02 0.0
-6.476484e-02 -7.619393e-02 0.0
-6.246950e-02 -7.808688e-02 0.0
-6.000000e-02 -8.000000e-02 0.0
-5.734623e-02 -8.192319e-02 0.0
-5.449884e-02 -8.384436e-02 0.0
-5.144958e-02 -8.574929e-02 0.0
-4.819187e-02 -8.762159e-02 0.0
-4.472136e-02 -8.944272e-02 0.0
-4.103647e-02 -9.119215e-02 0.0
-3.713907e-02 -9.284767e-02 0.0
-3.303504e-02 -9.438584e-02 0.0
-2.873479e-02 -9.578263e-02 0.0
-2.425356e-02 -9.701425e-02 0.0
-1.961161e-02 -9.805807e-02 0.0
-1.483405e-02 -9.889364e-02 0.0
-9.950372e-03 -9.950372e-02 0.0
-4.993762e-03 -9.987523e-02 0.0
0.000000e+00 -1.000000e-01 0.0
4.993762e-03 -9.987523e-02 0.0
9.950372e-03 -9.950372e-02 0.0
1.483405e-02 -9.889364e-02 0.0
1.961161e-02 -9.805807e-02 0.0
2.425356e-02 -9.701425e-02 0.0
2.873479e-02 -9.578263e-02 0.0
3.303504e-02 -9.438584e-02 0.0
3.713907e-02 -9.284767e-02 0.0
4.103647e-02 -9.119215e-02 0.0
4.472136e-02 -8.944272e-02 0.0
4.819187e-02 -8.762159e-02 0.0
5.144958e-02 -8.574929e-02 0.0
5.449884e-02 -8.384436e-02 0.0
5.734623e-02 -8.192319e-02 0.0
6.000000e-02 -8.000000e-02 0.0
6.246950e-02 -7.808688e-02 0.0
6.476484e-02 -7.619393e-02 0.0
6.689647e-02 -7.432941e-02 0.0
6.887495e-02 -7.249994e-02 0.0
7.071068e-02 -7.071068e-02 0.0
7.241379e-02 -6.896552e-02 0.0
7.399401e-02 -6.726728e-02 0.0
0.000000e+00 0.000000e+00 0.0
0.000000e+00 0.000000e+00 0.0
0.000000e+00 0.000000e+00 0.0
0.000000e+00 0.000000e+00 0.0
0.000000e+00 0.000000e+00 0.0
0.000000e+00 0.000000e+00 0.0
0.000000e+00 0.000000e+00 0.0
0.000000e+00 0.000000e+00 0.0
0.000000e+00 0.000000e+00 0.0
0.000000e+00 0.000000e+00 0.0
0.000000e+00 0.000000e+00 0.0
0.000000e+00 0.000000e+00 0.0
0.000000e+00 0.000000e+00 0.0
0.000000e+00 0.000000e+00 0.0
-7.709618e-02 -6.368814e-02 0.0
-7.568230e-02 -6.536199e-02 0.0
-7.415358e-02 -6.709133e-02 0.0
-7.249994e-02 -6.887495e-02 0.0
-7.071068e-02 -7.071068e-02 0.0
-6.877446e-02 -7.259527e-02 0.0
-6.667949e-02 -7.452413e-02 0.0
-6.441357e-02 -7.649112e-02 0.0
-6.196443e-02 -7.848828e-02 0.0
-5.931990e-02 -8.050558e-02 0.0
-5.646839e-02 -8.253073e-02 0.0
-5.339930e-02 -8.454889e-02 0.0
-5.010363e-02 -8.654263e-02 0.0
-4.657464e-02 -8.849182e-02 0.0
-4.280863e-02 -9.037378e-02 0.0
-3.880570e-02 -9.216354e-02 0.0
-3.457054e-02 -9.383431e-02 0.0
-3.011314e-02 -9.535827e-02 0.0
-2.544933e-02 -9.670745e-02 0.0
-2.060105e-02 -9.785498e-02 0.0
-1.559626e-02 -9.877630e-02 0.0
-1.046848e-02 -9.945055e-02 0.0
-5.255883e-03 -9.986178e-02 0.0
0.000000e+00 -1.000000e-01 0.0
5.255883e-03 -9.986178e-02 0.0
1.046848e-02 -9.945055e-02 0.0
1.559626e-02 -9.877630e-02 0.0
2.060105e-02 -9.785498e-02 0.0
2.544933e-02 -9.670745e-02 0.0
3.011314e-02 -9.535827e-02 0.0
3.457054e-02 -9.383431e-02 0.0
3.880570e-02 -9.216354e-02 0.0
4.280863e-02 -9.037378e-02 0.0
4.657464e-02 -8.849182e-02 0.0
5.010363e-02 -8.654263e-02 0.0
5.339930e-02 -8.454889e-02 0.0
5.646839e-02 -8.253073e-02 0.0
5.931990e-02 -8.050558e-02 0.0
6.196443e-02 -7.848828e-02 0.0
6.441357e-02 -7.649112e-02 0.0
6.667949e-02 -7.452413e-02 0.0
6.877446e-02 -7.259527e-02 0.0
7.071068e-02 -7.071068e-02 0.0
7.249994e-02 -6.887495e-02 0.0
7.415358e-02 -6.709133e-02 0.0
7.568230e-02 -6.536199e-02 0.0
7.709618e-02 -6.368814e-02 0.0
0.000000e+00 0.000000e+00 0.0
0.000000e+00 0.000000e+00 0.0
0.000000e+00 0.000000e+00 0.0
0.000000e+00 0.000000e+00 0.0
0.000000e+00 0.000000e+00 0.0
0.000000e+00 0.000000e+00 0.0
0.000000e+00 0.000000e+00 0.0
0.000000e+00 0.000000e+00 0.0
0.000000e+00 0.000000e+00 0.0
0.000000e+00 0.000000e+00 0.0
0.000000e+00 0.000000e+00 0.0
0.000000e+00 0.000000e+00 0.0
0.000000e+00 0.000000e+00 0.0
-7.875050e-02 -6.163083e-02 0.0
-7.739573e-02 -6.332378e-02 0.0
-7.592566e-02 -6.507914e-02 0.0
-7.432941e-02 -6.689647e-02 0.0
-7.259527e-02 -6.877446e-02 0.0
-7.071068e-02 -7.071068e-02 0.0
-6.866235e-02 -7.270132e-02 0.0
-6.643638e-02 -7.474093e-02 0.0
-6.401844e-02 -7.682213e-02 0.0
-6.139406e-02 -7.893522e-02 0.0
-5.854906e-02 -8.106792e-02 0.0
-5.547002e-02 -8.320503e-02 0.0
-5.214500e-02 -8.532818e-02 0.0
-4.856429e-02 -8.741573e-02 0.0
-4.472136e-02 -8.944272e-02 0.0
-4.061385e-02 -9.138115e-02 0.0
-3.624463e-02 -9.320047e-02 0.0
-3.162278e-02 -9.486833e-02 0.0
-2.676439e-02 -9.635179e-02 0.0
-2.169305e-02 -9.761871e-02 0.0
-1.643990e-02 -9.863939e-02 0.0
-1.104315e-02 -9.938837e-02 0.0
-5.547002e-03 -9.984604e-02 0.0
0.000000e+00 -1.000000e-01 0.0
5.547002e-03 -9.984604e-02 0.0
1.104315e-02 -9.938837e-02 0.0
1.643990e-02 -9.863939e-02 0.0
2.169305e-02 -9.761871e-02 0.0
2.676439e-02 -9.635179e-02 0.0
3.162278e-02 -9.486833e-02 0.0
3.624463e-02 -9.320047e-02 0.0
4.061385e-02 -9.138115e-02 0.0
4.472136e-02 -8.944272e-02 0.0
4.856429e-02 -8.741573e-02 0.0
5.214500e-02 -8.532818e-02 0.0
5.547002e-02 -8.320503e-02 0.0
5.854906e-02 -8.106792e-02 0.0
6.139406e-02 -7.893522e-02 0.0
6.401844e-02 -7.682213e-02 0.0
6.643638e-02 -7.474093e-02 0.0
6.866235e-02 -7.270132e-02 0.0
7.071068e-02 -7.071068e-02 0.0
7.259527e-02 -6.877446e-02 0.0
7.432941e-02 -6.689647e-02 0.0
7.592566e-02 -6.507914e-02 0.0
7.739573e-02 -6.332378e-02 0.0
7.875050e-02 -6.163083e-02 0.0
0.000000e+00 0.000000e+00 0.0
0.000000e+00 0.000000e+00 0.0
0.000000e+00 0.000000e+00 0.0
0.000000e+00 0.000000e+00 0.0
0.000000e+00 0.000000e+00 0.0
0.000000e+00 0.000000e+00 0.0
0.000000e+00 0.000000e+00 0.0
0.000000e+00 0.000000e+00 0.0
0.000000e+00 0.000000e+00 0.0
0.000000e+00 0.000000e+00 0.0
0.000000e+00 0.000000e+00 0.0
0.000000e+00 0.000000e+00 0.0
-8.160245e-02 -5.780173e-02 0.0
-8.041761e-02 -5.943911e-02 0.0
-7.912850e-02 -6.114475e-02 0.0
-7.772449e-02 -6.291982e-02 0.0
-7.619393e-02 -6.476484e-02 0.0
-7.452413e-02 -6.667949e-02 0.0
-7.270132e-02 -6.866235e-02 0.0
-7.071068e-02 -7.071068e-02 0.0
-6.853647e-02 -7.282000e-02 0.0
-6.616216e-02 -7.498379e-02 0.0
-6.357073e-02 -7.719302e-02 0.0
-6.074501e-02 -7.943578e-02 0.0
-5.766832e-02 -8.169679e-02 0.0
-5.432513e-02 -8.395702e-02 0.0
-5.070201e-02 -8.619342e-02 0.0
-4.678877e-02 -8.837879e-02 0.0
-4.257970e-02 -9.048187e-02 0.0
-3.807498e-02 -9.246781e-02 0.0
-3.328201e-02 -9.429903e-02 0.0
-2.821663e-02 -9.593655e-02 0.0
-2.290393e-02 -9.734172e-02 0.0
-1.737853e-02 -9.847836e-02 0.0
-1.168412e-02 -9.931506e-02 0.0
-5.872202e-03 -9.982744e-02 0.0
0.000000e+00 -1.000000e-01 0.0
5.872202e-03 -9.982744e-02 0.0
1.168412e-02 -9.931506e-02 0.0
1.737853e-02 -9.847836e-02 0.0
2.290393e-02 -9.734172e-02 0.0
2.821663e-02 -9.593655e-02 0.0
3.328201e-02 -9.429903e-02 0.0
3.807498e-02 -9.246781e-02 0.0
4.257970e-02 -9.048187e-02 0.0
4.678877e-02 -8.837879e-02 0.0
5.070201e-02 -8.619342e-02 0.0
5.432513e-02 -8.395702e-02 0.0
5.766832e-02 -8.169679e-02 0.0
6.074501e-02 -7.943578e-02 0.0
6.357073e-02 -7.719302e-02 0.0
6.616216e-02 -7.498379e-02 0.0
6.853647e-02 -7.282000e-02 0.0
7.071068e-02 -7.071068e-02 0.0
7.270132e-02 -6.866235e-02 0.0
7.452413e-02 -6.667949e-02 0.0
7.619393e-02 -6.476484e-02 0.0
7.772449e-02 -6.291982e-02 0.0
7.912850e-02 -6.114475e-02 0.0
8.041761e-02 -5.943911e-02 0.0
8.160245e-02 -5.780173e-02 0.0
0.000000e+00 0.000000e+00 0.0
0.000000e+00 0.000000e+00 0.0
0.000000e+00 0.000000e+00 0.0
0.000000e+00 0.000000e+00 0.0
0.000000e+00 0.000000e+00 0.0
0.000000e+00 0.000000e+00 0.0
0.000000e+00 0.000000e+00 0.0
0.000000e+00 0.000000e+00 0.0
0.000000e+00 0.000000e+00 0.0
0.000000e+00 0.000000e+00 0.0
-8.422714e-02 -5.390537e-02 0.0
-8.320503e-02 -5.547002e-02 0.0
-8.209052e-02 -5.710645e-02 0.0
-8.087361e-02 -5.881717e-02 0.0
-7.954317e-02 -6.060432e-02 0.0
-7.808688e-02 -6.246950e-02 0.0
-7.649112e-02 -6.441357e-02 0.0
-7.474093e-02 -6.643638e-02 0.0
-7.282000e-02 -6.853647e-02 0.0
-7.071068e-02 -7.071068e-02 0.0
-6.839411e-02 -7.295372e-02 0.0
-6.585046e-02 -7.525767e-02 0.0
-6.305926e-02 -7.761140e-02 0.0
-6.000000e-02 -8.000000e-02 0.0
-5.665288e-02 -8.240419e-02 0.0
-5.299989e-02 -8.479983e-02 0.0
-4.902612e-02 -8.715755e-02 0.0
-4.472136e-02 -8.944272e-02 0.0
-4.008188e-02 -9.161573e-02 0.0
-3.511234e-02 -9.363292e-02 0.0
-2.982750e-02 -9.544800e-02 0.0
-2.425356e-02 -9.701425e-02 0.0
-1.842885e-02 -9.828722e-02 0.0
-1.240347e-02 -9.922779e-02 0.0
-6.237829e-03 -9.980526e-02 0.0
0.000000e+00 -1.000000e-01 0.0
6.237829e-03 -9.980526e-02 0.0
1.240347e-02 -9.922779e-02 0.0
1.842885e-02 -9.828722e-02 0.0
2.425356e-02 -9.701425e-02 0.0
2.982750e-02 -9.544800e-02 0.0
3.511234e-02 -9.363292e-02 0.0
4.008188e-02 -9.161573e-02 0.0
4.472136e-02 -8.944272e-02 0.0
4.902612e-02 -8.715755e-02 0.0
5.299989e-02 -8.479983e-02 0.0
5.665288e-02 -8.240419e-02 0.0
6.000000e-02 -8.000000e-02 0.0
6.305926e-02 -7.761140e-02 0.0
6.585046e-02 -7.525767e-02 0.0
6.839411e-02 -7.295372e-02 0.0
7.071068e-02 -7.071068e-02 0.0
7.282000e-02 -6.853647e-02 0.0
7.474093e-02 -6.643638e-02 0.0
7.649112e-02 -6.441357e-02 0.0
7.808688e-02 -6.246950e-02 0.0
7.954317e-02 -6.060432e-02 0.0
8.087361e-02 -5.881717e-02 0.0
8.209052e-02 -5.710645e-02 0.0
8.320503e-02 -5.547002e-02 0.0
8.422714e-02 -5.390537e-02 0.0
0.000000e+00 0.000000e+00 0.0
0.000000e+00 0.000000e+00 0.0
0.000000e+00 0.000000e+00 0.0
0.000000e+00 0.000000e+00 0.0
0.000000e+00 0.000000e+00 0.0
0.000000e+00 0.000000e+00 0.0
0.000000e+00 0.000000e+00 0.0
0.000000e+00 0.000000e+00 0.0
0.000000e+00 0.000000e+00 0.0
-8.574929e-02 -5.144958e-02 0.0
-8.479983e-02 -5.299989e-02 0.0
-8.376106e-02 -5.462678e-02 0.0
-8.262273e-02 -5.633368e-02 0.0
-8.137335e-02 -5.812382e-02 0.0
-8.000000e-02 -6.000000e-02 0.0
-7.848828e-02 -6.196443e-02 0.0
-7.682213e-02 -6.401844e-02 0.0
-7.498379e-02 -6.616216e-02 0.0
-7.295372e-02 -6.839411e-02 0.0
-7.071068e-02 -7.071068e-02 0.0
-6.823183e-02 -7.310553e-02 0.0
-6.549305e-02 -7.556891e-02 0.0
-6.246950e-02 -7.808688e-02 0.0
-5.913637e-02 -8.064050e-02 0.0
-5.547002e-02 -8.320503e-02 0.0
-5.144958e-02 -8.574929e-02 0.0
-4.705882e-02 -8.823529e-02 0.0
-4.228855e-02 -9.061831e-02 0.0
-3.713907e-02 -9.284767e-02 0.0
-3.162278e-02 -9.486833e-02 0.0
-2.576627e-02 -9.662349e-02 0.0
-1.961161e-02 -9.805807e-02 0.0
-1.321637e-02 -9.912279e-02 0.0